REMARK  Name = Candidata_014
REMARK  3 active torsions:
REMARK  status: ('A' for Active; 'I' for Inactive)
REMARK    1  A    between atoms: C_2  and  C_4
REMARK    2  A    between atoms: C_10  and  C_11
REMARK    3  A    between atoms: N_13  and  C_14
REMARK                            x       y       z     vdW  Elec       q    Type
REMARK                         _______ _______ _______ _____ _____    ______ ____
ROOT
ATOM      1  C   UNL     1       0.941  -0.340  -1.510  0.00  0.00    +0.000 C 
ATOM      2  O   UNL     1       0.848  -0.268  -2.750  0.00  0.00    +0.000 OA
ATOM      3  N   UNL     1      -0.237  -0.284  -0.681  0.00  0.00    +0.000 N 
ATOM      4  H   UNL     1      -0.135  -0.348   0.296  0.00  0.00    +0.000 HD
ENDROOT
BRANCH   1  11
ATOM      5  C   UNL     1       2.681   0.528   0.010  0.00  0.00    +0.000 A 
ATOM      6  C   UNL     1       3.897   0.394   0.678  0.00  0.00    +0.000 A 
ATOM      7  C   UNL     1       4.622  -0.749   0.496  0.00  0.00    +0.000 A 
ATOM      8  P   UNL     1       6.196  -0.906   1.373  0.00  0.00    +0.000 P 
ATOM      9  C   UNL     1       4.172  -1.771  -0.338  0.00  0.00    +0.000 A 
ATOM     10  C   UNL     1       2.969  -1.649  -1.006  0.00  0.00    +0.000 A 
ATOM     11  C   UNL     1       2.239  -0.486  -0.813  0.00  0.00    +0.000 A 
BRANCH   5  13
ATOM     12  O   UNL     1       0.876   2.068  -0.344  0.00  0.00    +0.000 OA
ATOM     13  C   UNL     1       1.947   1.776   0.210  0.00  0.00    +0.000 C 
ATOM     14  O   UNL     1       2.461   2.753   1.094  0.00  0.00    +0.000 OA
ENDBRANCH   5  13
ENDBRANCH   1  11
BRANCH   3  15
ATOM     15  C   UNL     1      -1.538  -0.139  -1.225  0.00  0.00    +0.000 C 
ATOM     16  C   UNL     1      -2.625  -0.079  -0.503  0.00  0.00    +0.000 C 
ATOM     17  C   UNL     1      -2.628  -0.154   0.948  0.00  0.00    +0.000 C 
ATOM     18  C   UNL     1      -3.758  -0.070   1.633  0.00  0.00    +0.000 C 
ATOM     19  C   UNL     1      -5.085   0.105   0.979  0.00  0.00    +0.000 C 
ATOM     20  N   UNL     1      -5.000   0.169  -0.451  0.00  0.00    +0.000 NA
ATOM     21  C   UNL     1      -3.925   0.092  -1.154  0.00  0.00    +0.000 C 
ENDBRANCH   3  15
TORSDOF 3
