REMARK  Name = Candidata_012
REMARK  2 active torsions:
REMARK  status: ('A' for Active; 'I' for Inactive)
REMARK    1  A    between atoms: C_2  and  C_4
REMARK    2  A    between atoms: C_10  and  C_11
REMARK                            x       y       z     vdW  Elec       q    Type
REMARK                         _______ _______ _______ _____ _____    ______ ____
ROOT
ATOM      1  C   UNL     1      -0.297  -0.441  -0.112  0.00  0.00    +0.000 A 
ATOM      2  C   UNL     1       0.779  -1.150  -0.669  0.00  0.00    +0.000 A 
ATOM      3  C   UNL     1       2.048  -0.581  -0.678  0.00  0.00    +0.000 A 
ATOM      4 BR   UNL     1       3.497  -1.525  -1.438  0.00  0.00    +0.000 Br
ATOM      5  C   UNL     1       2.255   0.681  -0.132  0.00  0.00    +0.000 A 
ATOM      6  C   UNL     1       1.184   1.377   0.439  0.00  0.00    +0.000 A 
ATOM      7  C   UNL     1      -0.112   0.828   0.470  0.00  0.00    +0.000 A 
ENDROOT
BRANCH   1   9
ATOM      8  O   UNL     1      -1.888  -2.168   0.366  0.00  0.00    +0.000 OA
ATOM      9  C   UNL     1      -1.601  -1.118  -0.172  0.00  0.00    +0.000 C 
ATOM     10  O   UNL     1      -2.426  -0.480  -1.018  0.00  0.00    +0.000 OA
ENDBRANCH   1   9
BRANCH   7  11
ATOM     11  C   UNL     1      -1.109   1.655   1.149  0.00  0.00    +0.000 C 
ATOM     12  C   UNL     1      -2.394   1.647   1.080  0.00  0.00    +0.000 C 
ATOM     13  O   UNL     1      -1.926   0.945   2.084  0.00  0.00    +0.000 OA
ENDBRANCH   7  11
TORSDOF 2
