REMARK  Name = Candidata_016
REMARK  1 active torsions:
REMARK  status: ('A' for Active; 'I' for Inactive)
REMARK    1  A    between atoms: C_2  and  C_4
REMARK                            x       y       z     vdW  Elec       q    Type
REMARK                         _______ _______ _______ _____ _____    ______ ____
ROOT
ATOM      1  C   UNL     1      -1.092   0.566   0.067  0.00  0.00    +0.000 A 
ATOM      2  C   UNL     1      -0.745   1.884   0.405  0.00  0.00    +0.000 A 
ATOM      3  C   UNL     1       0.585   2.223   0.584  0.00  0.00    +0.000 A 
ATOM      4 BR   UNL     1       1.052   3.995   1.046  0.00  0.00    +0.000 Br
ATOM      5  C   UNL     1       1.577   1.262   0.435  0.00  0.00    +0.000 A 
ATOM      6  C   UNL     1       1.261  -0.069   0.089  0.00  0.00    +0.000 A 
ATOM      7  C   UNL     1      -0.099  -0.445  -0.114  0.00  0.00    +0.000 A 
ATOM      8  C   UNL     1      -0.600  -1.843  -0.456  0.00  0.00    +0.000 C 
ATOM      9  P   UNL     1       0.816  -2.861  -1.082  0.00  0.00    +0.000 P 
ATOM     10  C   UNL     1       2.426  -2.200  -0.558  0.00  0.00    +0.000 C 
ATOM     11  C   UNL     1       2.432  -0.968  -0.043  0.00  0.00    +0.000 C 
ENDROOT
BRANCH   1  13
ATOM     12  O   UNL     1      -3.092  -0.794   0.214  0.00  0.00    +0.000 OA
ATOM     13  C   UNL     1      -2.546   0.260  -0.049  0.00  0.00    +0.000 C 
ATOM     14  O   UNL     1      -3.245   1.307  -0.522  0.00  0.00    +0.000 OA
ENDBRANCH   1  13
TORSDOF 1
