REMARK  Name = Candidata_025
REMARK  3 active torsions:
REMARK  status: ('A' for Active; 'I' for Inactive)
REMARK    1  A    between atoms: C_2  and  C_3
REMARK    2  A    between atoms: C_3  and  N_4
REMARK    3  A    between atoms: N_4  and  C_5
REMARK                            x       y       z     vdW  Elec       q    Type
REMARK                         _______ _______ _______ _____ _____    ______ ____
ROOT
ATOM      1  C   UNL     1      -0.153  -0.196   0.434  0.00  0.00    +0.000 A 
ATOM      2  C   UNL     1      -1.237  -0.864   1.024  0.00  0.00    +0.000 A 
ATOM      3  C   UNL     1      -2.535  -0.743   0.517  0.00  0.00    +0.000 A 
ATOM      4  C   UNL     1      -2.769   0.034  -0.611  0.00  0.00    +0.000 A 
ATOM      5  C   UNL     1      -1.703   0.676  -1.234  0.00  0.00    +0.000 A 
ATOM      6  C   UNL     1      -0.406   0.550  -0.723  0.00  0.00    +0.000 A 
ENDROOT
BRANCH   1   7
ATOM      7  N   UNL     1       1.124  -0.424   0.961  0.00  0.00    +0.000 N 
ATOM      8  H   UNL     1       1.265  -1.161   1.599  0.00  0.00    +0.000 HD
BRANCH   7   9
ATOM      9  C   UNL     1       2.252   0.423   0.570  0.00  0.00    +0.000 C 
BRANCH   9  11
ATOM     10  O   UNL     1       3.247   0.762  -1.609  0.00  0.00    +0.000 OA
ATOM     11  C   UNL     1       2.830  -0.019  -0.756  0.00  0.00    +0.000 C 
ENDBRANCH   9  11
ENDBRANCH   7   9
ENDBRANCH   1   7
TORSDOF 3
