REMARK  Name = Candidata_004
REMARK  2 active torsions:
REMARK  status: ('A' for Active; 'I' for Inactive)
REMARK    1  A    between atoms: C_2  and  C_3
REMARK    2  A    between atoms: C_9  and  C_10
REMARK                            x       y       z     vdW  Elec       q    Type
REMARK                         _______ _______ _______ _____ _____    ______ ____
ROOT
ATOM      1  C   UNL     1      -0.120   0.787  -0.368  0.00  0.00    +0.000 A 
ATOM      2  C   UNL     1      -1.508   0.745  -0.581  0.00  0.00    +0.000 A 
ATOM      3  C   UNL     1      -2.261  -0.340  -0.127  0.00  0.00    +0.000 A 
ATOM      4  C   UNL     1      -1.633  -1.383   0.548  0.00  0.00    +0.000 A 
ATOM      5 BR   UNL     1      -2.653  -2.845   1.175  0.00  0.00    +0.000 Br
ATOM      6  C   UNL     1      -0.256  -1.359   0.762  0.00  0.00    +0.000 A 
ATOM      7  C   UNL     1       0.508  -0.280   0.289  0.00  0.00    +0.000 A 
ENDROOT
BRANCH   7   8
ATOM      8  C   UNL     1       1.960  -0.360   0.525  0.00  0.00    +0.000 C 
ATOM      9  O   UNL     1       2.494  -0.765   1.538  0.00  0.00    +0.000 OA
ATOM     10  O   UNL     1       2.661  -0.024  -0.569  0.00  0.00    +0.000 OA
ENDBRANCH   7   8
BRANCH   1  12
ATOM     11  O   UNL     1       0.061   2.870  -1.472  0.00  0.00    +0.000 OA
ATOM     12  C   UNL     1       0.609   2.000  -0.803  0.00  0.00    +0.000 C 
ENDBRANCH   1  12
TORSDOF 2
