REMARK  Name = Candidata_023
REMARK  2 active torsions:
REMARK  status: ('A' for Active; 'I' for Inactive)
REMARK    1  A    between atoms: C_2  and  C_4
REMARK    2  A    between atoms: C_5  and  C_6
REMARK                            x       y       z     vdW  Elec       q    Type
REMARK                         _______ _______ _______ _____ _____    ______ ____
ROOT
ATOM      1  C   UNL     1       0.469   0.825  -0.285  0.00  0.00    +0.000 C 
ATOM      2  C   UNL     1      -0.862   0.645  -0.269  0.00  0.00    +0.000 C 
ENDROOT
BRANCH   1   4
ATOM      3  O   UNL     1       1.301  -1.399   0.178  0.00  0.00    +0.000 OA
ATOM      4  C   UNL     1       1.475  -0.210   0.001  0.00  0.00    +0.000 C 
ATOM      5  O   UNL     1       2.698   0.344   0.034  0.00  0.00    +0.000 OA
ENDBRANCH   1   4
BRANCH   2   6
ATOM      6  C   UNL     1      -1.623  -0.597   0.061  0.00  0.00    +0.000 C 
ATOM      7 BR   UNL     1      -2.916  -0.147   1.452  0.00  0.00    +0.000 Br
ENDBRANCH   2   6
TORSDOF 2
