REMARK  Name = Candidata_022
REMARK  5 active torsions:
REMARK  status: ('A' for Active; 'I' for Inactive)
REMARK    1  A    between atoms: C_2  and  C_4
REMARK    2  A    between atoms: C_5  and  C_6
REMARK    3  A    between atoms: C_8  and  C_9
REMARK    4  A    between atoms: C_10  and  C_11
REMARK    5  A    between atoms: C_11  and  C_12
REMARK                            x       y       z     vdW  Elec       q    Type
REMARK                         _______ _______ _______ _____ _____    ______ ____
ROOT
ATOM      1  C   UNL     1       1.307  -1.204  -1.508  0.00  0.00    +0.000 C 
ATOM      2  C   UNL     1       1.069  -0.039  -1.674  0.00  0.00    +0.000 C 
ENDROOT
BRANCH   1   5
ATOM      3  C   UNL     1       0.981  -3.261  -0.241  0.00  0.00    +0.000 C 
ATOM      4 BR   UNL     1       1.307  -5.100  -0.029  0.00  0.00    +0.000 Br
ATOM      5  C   UNL     1       1.552  -2.582  -1.252  0.00  0.00    +0.000 C 
BRANCH   3   7
ATOM      6  C   UNL     1       0.284  -1.752   1.645  0.00  0.00    +0.000 C 
ATOM      7  C   UNL     1       0.050  -2.695   0.718  0.00  0.00    +0.000 C 
BRANCH   6   9
ATOM      8  O   UNL     1       1.637  -0.019   2.551  0.00  0.00    +0.000 OA
ATOM      9  C   UNL     1       1.553  -1.088   1.971  0.00  0.00    +0.000 C 
ATOM     10  O   UNL     1       2.645  -1.792   1.645  0.00  0.00    +0.000 OA
ENDBRANCH   6   9
ENDBRANCH   3   7
ENDBRANCH   1   5
BRANCH   2  11
ATOM     11  C   UNL     1       0.737   1.385  -1.814  0.00  0.00    +0.000 C 
BRANCH  11  12
ATOM     12  C   UNL     1      -0.460   1.760  -0.973  0.00  0.00    +0.000 A 
ATOM     13  C   UNL     1      -1.746   1.785  -1.531  0.00  0.00    +0.000 A 
ATOM     14  C   UNL     1      -2.853   2.106  -0.743  0.00  0.00    +0.000 A 
ATOM     15  C   UNL     1      -2.688   2.397   0.610  0.00  0.00    +0.000 A 
ATOM     16  C   UNL     1      -1.416   2.366   1.177  0.00  0.00    +0.000 A 
ATOM     17  C   UNL     1      -0.307   2.048   0.392  0.00  0.00    +0.000 A 
ENDBRANCH  11  12
ENDBRANCH   2  11
TORSDOF 5
