REMARK  Name = Candidata_030
REMARK  5 active torsions:
REMARK  status: ('A' for Active; 'I' for Inactive)
REMARK    1  A    between atoms: C_2  and  C_3
REMARK    2  A    between atoms: C_4  and  C_5
REMARK    3  A    between atoms: C_7  and  C_8
REMARK    4  A    between atoms: C_9  and  C_11
REMARK    5  A    between atoms: C_12  and  C_13
REMARK                            x       y       z     vdW  Elec       q    Type
REMARK                         _______ _______ _______ _____ _____    ______ ____
ROOT
ATOM      1  C   UNL     1       0.932  -0.259   0.211  0.00  0.00    +0.000 C 
ATOM      2  C   UNL     1       1.646   0.755   0.743  0.00  0.00    +0.000 C 
ATOM      3 BR   UNL     1       3.331   1.264   0.071  0.00  0.00    +0.000 Br
ENDROOT
BRANCH   1   6
ATOM      4  C   UNL     1      -0.289  -2.988  -1.748  0.00  0.00    +0.000 C 
ATOM      5  C   UNL     1       0.501  -2.043  -1.328  0.00  0.00    +0.000 C 
ATOM      6  C   UNL     1       1.295  -1.101  -0.908  0.00  0.00    +0.000 C 
BRANCH   4   8
ATOM      7  C   UNL     1      -2.106  -1.556  -2.639  0.00  0.00    +0.000 C 
ATOM      8  C   UNL     1      -1.569  -2.757  -2.380  0.00  0.00    +0.000 C 
BRANCH   7  10
ATOM      9  O   UNL     1      -3.940  -0.375  -3.534  0.00  0.00    +0.000 OA
ATOM     10  C   UNL     1      -3.426  -1.460  -3.292  0.00  0.00    +0.000 C 
ENDBRANCH   7  10
ENDBRANCH   4   8
ENDBRANCH   1   6
BRANCH   2  11
ATOM     11  C   UNL     1       1.101   1.489   1.884  0.00  0.00    +0.000 C 
ATOM     12  C   UNL     1       1.654   2.526   2.532  0.00  0.00    +0.000 C 
BRANCH  12  13
ATOM     13  C   UNL     1       0.942   3.131   3.666  0.00  0.00    +0.000 C 
ATOM     14  O   UNL     1      -0.131   2.797   4.128  0.00  0.00    +0.000 OA
ATOM     15  O   UNL     1       1.653   4.154   4.165  0.00  0.00    +0.000 OA
ENDBRANCH  12  13
ENDBRANCH   2  11
TORSDOF 5
