REMARK  Name = Candidata_010
REMARK  5 active torsions:
REMARK  status: ('A' for Active; 'I' for Inactive)
REMARK    1  A    between atoms: C_1  and  C_2
REMARK    2  A    between atoms: C_3  and  C_4
REMARK    3  A    between atoms: C_4  and  N_5
REMARK    4  A    between atoms: C_4  and  C_6
REMARK    5  A    between atoms: C_12  and  C_13
REMARK                            x       y       z     vdW  Elec       q    Type
REMARK                         _______ _______ _______ _____ _____    ______ ____
ROOT
ATOM      1  C   UNL     1      -0.857  -0.238  -0.706  0.00  0.00    +0.000 A 
ATOM      2  C   UNL     1      -1.495  -0.019  -1.945  0.00  0.00    +0.000 A 
ATOM      3  C   UNL     1      -2.665   0.742  -2.044  0.00  0.00    +0.000 A 
ATOM      4  C   UNL     1      -3.223   1.305  -0.903  0.00  0.00    +0.000 A 
ATOM      5 BR   UNL     1      -4.796   2.344  -1.039  0.00  0.00    +0.000 Br
ATOM      6  C   UNL     1      -2.634   1.101   0.339  0.00  0.00    +0.000 A 
ATOM      7  C   UNL     1      -1.471   0.319   0.442  0.00  0.00    +0.000 A 
ENDROOT
BRANCH   7   8
ATOM      8  C   UNL     1      -0.949   0.149   1.815  0.00  0.00    +0.000 C 
ATOM      9  O   UNL     1      -0.828   1.031   2.644  0.00  0.00    +0.000 OA
ATOM     10  O   UNL     1      -0.723  -1.141   2.111  0.00  0.00    +0.000 OA
ENDBRANCH   7   8
BRANCH   1  11
ATOM     11  C   UNL     1       0.454  -1.018  -0.616  0.00  0.00    +0.000 C 
BRANCH  11  12
ATOM     12  N   UNL     1       0.884  -1.589  -1.900  0.00  0.00    +0.000 N 
ATOM     13  H   UNL     1       1.087  -0.835  -2.557  0.00  0.00    +0.000 HD
ATOM     14  H   UNL     1       0.140  -2.177  -2.277  0.00  0.00    +0.000 HD
ATOM     15  H   UNL     1       1.723  -2.151  -1.758  0.00  0.00    +0.000 HD
ENDBRANCH  11  12
BRANCH  11  18
ATOM     16  C   UNL     1       3.501   0.407   1.399  0.00  0.00    +0.000 C 
ATOM     17  C   UNL     1       2.392  -0.466   0.908  0.00  0.00    +0.000 C 
ATOM     18  C   UNL     1       1.591  -0.154  -0.125  0.00  0.00    +0.000 C 
ENDBRANCH  11  18
ENDBRANCH   1  11
TORSDOF 4
