REMARK  Name = Candidata_036
REMARK  4 active torsions:
REMARK  status: ('A' for Active; 'I' for Inactive)
REMARK    1  A    between atoms: C_1  and  C_2
REMARK    2  A    between atoms: C_2  and  C_3
REMARK    3  A    between atoms: C_4  and  O_5
REMARK    4  A    between atoms: O_5  and  O_6
REMARK                            x       y       z     vdW  Elec       q    Type
REMARK                         _______ _______ _______ _____ _____    ______ ____
ROOT
ATOM      1  C   UNL     1       0.474   0.172  -0.471  0.00  0.00    +0.000 C 
ATOM      2  C   UNL     1       1.063  -0.195   0.678  0.00  0.00    +0.000 C 
ENDROOT
BRANCH   1   4
ATOM      3  C   UNL     1      -1.913   0.190   0.499  0.00  0.00    +0.000 C 
ATOM      4  C   UNL     1      -0.995   0.405  -0.697  0.00  0.00    +0.000 C 
ENDBRANCH   1   4
BRANCH   2   5
ATOM      5  O   UNL     1       2.401  -0.405   0.922  0.00  0.00    +0.000 OA
BRANCH   5   6
ATOM      6  O   UNL     1       3.105  -0.386  -0.347  0.00  0.00    +0.000 OA
ATOM      7  H   UNL     1       4.052  -0.533  -0.194  0.00  0.00    +0.000 HD
ENDBRANCH   5   6
ENDBRANCH   2   5
TORSDOF 3
