REMARK  Name = Candidata_031
REMARK  2 active torsions:
REMARK  status: ('A' for Active; 'I' for Inactive)
REMARK    1  A    between atoms: C_8  and  C_9
REMARK    2  A    between atoms: C_9  and  C_10
REMARK                            x       y       z     vdW  Elec       q    Type
REMARK                         _______ _______ _______ _____ _____    ______ ____
ROOT
ATOM      1  O   UNL     1       3.059   1.166   2.347  0.00  0.00    +0.000 OA
ATOM      2  C   UNL     1       2.398   0.892   1.343  0.00  0.00    +0.000 C 
ATOM      3  C   UNL     1       2.917   1.168  -0.047  0.00  0.00    +0.000 C 
ATOM      4  C   UNL     1       3.526  -0.100  -0.552  0.00  0.00    +0.000 C 
ATOM      5 BR   UNL     1       5.309   0.047  -1.116  0.00  0.00    +0.000 Br
ATOM      6  C   UNL     1       2.891  -1.282  -0.604  0.00  0.00    +0.000 C 
ATOM      7  C   UNL     1       1.510  -1.549  -0.267  0.00  0.00    +0.000 C 
ATOM      8  C   UNL     1       0.691  -0.910   0.594  0.00  0.00    +0.000 C 
ATOM      9  C   UNL     1       1.007   0.295   1.455  0.00  0.00    +0.000 C 
ENDROOT
BRANCH   8  10
ATOM     10  C   UNL     1      -0.727  -1.437   0.788  0.00  0.00    +0.000 C 
BRANCH  10  11
ATOM     11  C   UNL     1      -1.790  -0.502   0.256  0.00  0.00    +0.000 A 
ATOM     12  C   UNL     1      -2.639   0.186   1.135  0.00  0.00    +0.000 A 
ATOM     13  C   UNL     1      -3.614   1.055   0.642  0.00  0.00    +0.000 A 
ATOM     14  C   UNL     1      -3.751   1.244  -0.732  0.00  0.00    +0.000 A 
ATOM     15  C   UNL     1      -2.915   0.564  -1.615  0.00  0.00    +0.000 A 
ATOM     16  C   UNL     1      -1.939  -0.305  -1.125  0.00  0.00    +0.000 A 
ENDBRANCH  10  11
ENDBRANCH   8  10
TORSDOF 2
