REMARK  Name = Candidata_035
REMARK  0 active torsions:
REMARK  status: ('A' for Active; 'I' for Inactive)
REMARK                            x       y       z     vdW  Elec       q    Type
REMARK                         _______ _______ _______ _____ _____    ______ ____
ROOT
ATOM      1  O   UNL     1       2.775  -2.365  -0.559  0.00  0.00    +0.000 OA
ATOM      2  C   UNL     1       1.935  -1.549  -0.190  0.00  0.00    +0.000 C 
ATOM      3  C   UNL     1       2.251  -0.413   0.746  0.00  0.00    +0.000 C 
ATOM      4  C   UNL     1       2.126   0.875  -0.006  0.00  0.00    +0.000 C 
ATOM      5 BR   UNL     1       3.717   1.823  -0.267  0.00  0.00    +0.000 Br
ATOM      6  C   UNL     1       0.956   1.349  -0.458  0.00  0.00    +0.000 C 
ATOM      7  C   UNL     1      -0.316   0.646  -0.265  0.00  0.00    +0.000 A 
ATOM      8  C   UNL     1      -1.468   1.418  -0.058  0.00  0.00    +0.000 A 
ATOM      9  C   UNL     1      -2.718   0.812   0.108  0.00  0.00    +0.000 A 
ATOM     10  C   UNL     1      -2.838  -0.575   0.054  0.00  0.00    +0.000 A 
ATOM     11  C   UNL     1      -1.708  -1.358  -0.167  0.00  0.00    +0.000 A 
ATOM     12  C   UNL     1      -0.459  -0.748  -0.315  0.00  0.00    +0.000 A 
ATOM     13  O   UNL     1       0.604  -1.647  -0.596  0.00  0.00    +0.000 OA
ENDROOT
TORSDOF 0
