REMARK  Name = Candidata_003
REMARK  2 active torsions:
REMARK  status: ('A' for Active; 'I' for Inactive)
REMARK    1  A    between atoms: C_1  and  C_2
REMARK    2  A    between atoms: C_8  and  C_9
REMARK                            x       y       z     vdW  Elec       q    Type
REMARK                         _______ _______ _______ _____ _____    ______ ____
ROOT
ATOM      1  C   UNL     1       1.557  -1.219   0.717  0.00  0.00    +0.000 C 
ATOM      2  C   UNL     1       0.248  -0.643   0.251  0.00  0.00    +0.000 A 
ATOM      3  C   UNL     1      -0.904  -1.444   0.342  0.00  0.00    +0.000 A 
ATOM      4  C   UNL     1      -2.152  -0.956  -0.052  0.00  0.00    +0.000 A 
ATOM      5  C   UNL     1      -2.261   0.341  -0.545  0.00  0.00    +0.000 A 
ATOM      6 BR   UNL     1      -3.951   1.005  -1.070  0.00  0.00    +0.000 Br
ATOM      7  C   UNL     1      -1.134   1.149  -0.658  0.00  0.00    +0.000 A 
ATOM      8  C   UNL     1       0.126   0.659  -0.279  0.00  0.00    +0.000 A 
ENDROOT
BRANCH   8   9
ATOM      9  C   UNL     1       1.261   1.598  -0.456  0.00  0.00    +0.000 C 
ATOM     10  O   UNL     1       1.191   2.811  -0.386  0.00  0.00    +0.000 OA
ATOM     11  O   UNL     1       2.406   0.987  -0.798  0.00  0.00    +0.000 OA
ENDBRANCH   8   9
TORSDOF 1
