REMARK  Name = Candidata_019
REMARK  1 active torsions:
REMARK  status: ('A' for Active; 'I' for Inactive)
REMARK    1  A    between atoms: C_2  and  C_4
REMARK                            x       y       z     vdW  Elec       q    Type
REMARK                         _______ _______ _______ _____ _____    ______ ____
ROOT
ATOM      1  O   UNL     1       0.941  -0.175   1.405  0.00  0.00    +0.000 OA
ATOM      2  C   UNL     1       0.519  -0.123   0.263  0.00  0.00    +0.000 C 
ATOM      3  O   UNL     1       1.354  -0.394  -0.767  0.00  0.00    +0.000 OA
ENDROOT
BRANCH   2   4
ATOM      4  C   UNL     1      -0.861   0.214  -0.229  0.00  0.00    +0.000 C 
ATOM      5 BR   UNL     1      -2.032   0.597   1.271  0.00  0.00    +0.000 Br
ENDBRANCH   2   4
TORSDOF 1
