REMARK  Name = Candidata_027
REMARK  5 active torsions:
REMARK  status: ('A' for Active; 'I' for Inactive)
REMARK    1  A    between atoms: C_2  and  C_4
REMARK    2  A    between atoms: S_6  and  C_7
REMARK    3  A    between atoms: C_9  and  C_10
REMARK    4  A    between atoms: C_11  and  C_12
REMARK    5  A    between atoms: N_14  and  C_15
REMARK                            x       y       z     vdW  Elec       q    Type
REMARK                         _______ _______ _______ _____ _____    ______ ____
ROOT
ATOM      1  C   UNL     1       1.013  -0.580  -0.430  0.00  0.00    +0.000 C 
ATOM      2  C   UNL     1       0.635   0.647  -0.821  0.00  0.00    +0.000 C 
ENDROOT
BRANCH   2   3
ATOM      3  C   UNL     1      -0.682   1.250  -0.481  0.00  0.00    +0.000 C 
ATOM      4  O   UNL     1      -0.717   2.442  -0.203  0.00  0.00    +0.000 OA
ATOM      5  N   UNL     1      -1.739   0.374  -0.586  0.00  0.00    +0.000 N 
ATOM      6  H   UNL     1      -1.522  -0.539  -0.883  0.00  0.00    +0.000 HD
BRANCH   5   7
ATOM      7  C   UNL     1      -3.098   0.637  -0.316  0.00  0.00    +0.000 A 
ATOM      8  C   UNL     1      -4.010  -0.402  -0.549  0.00  0.00    +0.000 A 
ATOM      9  C   UNL     1      -5.374  -0.224  -0.302  0.00  0.00    +0.000 A 
ATOM     10  C   UNL     1      -5.840   0.995   0.182  0.00  0.00    +0.000 A 
ATOM     11  C   UNL     1      -4.941   2.032   0.419  0.00  0.00    +0.000 A 
ATOM     12  C   UNL     1      -3.576   1.854   0.173  0.00  0.00    +0.000 A 
ENDBRANCH   5   7
ENDBRANCH   2   3
BRANCH   1  15
ATOM     13  C   UNL     1       2.810  -2.325  -0.375  0.00  0.00    +0.000 C 
ATOM     14 BR   UNL     1       1.849  -3.626   0.571  0.00  0.00    +0.000 Br
ATOM     15  C   UNL     1       2.327  -1.119  -0.729  0.00  0.00    +0.000 C 
BRANCH  13  18
ATOM     16  C   UNL     1       5.859  -1.399   1.398  0.00  0.00    +0.000 C 
ATOM     17  C   UNL     1       5.234  -1.997   0.429  0.00  0.00    +0.000 C 
ATOM     18  S   UNL     1       4.428  -2.790  -0.833  0.00  0.00    +0.000 SA
BRANCH  16  20
ATOM     19  O   UNL     1       6.152   0.550   2.718  0.00  0.00    +0.000 OA
ATOM     20  C   UNL     1       5.589  -0.020   1.800  0.00  0.00    +0.000 C 
ATOM     21  O   UNL     1       4.648   0.591   1.064  0.00  0.00    +0.000 OA
ENDBRANCH  16  20
ENDBRANCH  13  18
ENDBRANCH   1  15
TORSDOF 5
