REMARK  Name = Candidata_002
REMARK  4 active torsions:
REMARK  status: ('A' for Active; 'I' for Inactive)
REMARK    1  A    between atoms: C_2  and  C_4
REMARK    2  A    between atoms: C_10  and  C_11
REMARK    3  A    between atoms: C_11  and  C_12
REMARK    4  A    between atoms: C_13  and  C_14
REMARK                            x       y       z     vdW  Elec       q    Type
REMARK                         _______ _______ _______ _____ _____    ______ ____
ROOT
ATOM      1  C   UNL     1      -1.889   0.112   0.252  0.00  0.00    +0.000 A 
ATOM      2  C   UNL     1      -2.924  -0.213   1.143  0.00  0.00    +0.000 A 
ATOM      3  C   UNL     1      -3.770  -1.280   0.859  0.00  0.00    +0.000 A 
ATOM      4 BR   UNL     1      -5.166  -1.716   2.057  0.00  0.00    +0.000 Br
ATOM      5  C   UNL     1      -3.599  -2.027  -0.303  0.00  0.00    +0.000 A 
ATOM      6  C   UNL     1      -2.565  -1.709  -1.187  0.00  0.00    +0.000 A 
ATOM      7  C   UNL     1      -1.691  -0.637  -0.925  0.00  0.00    +0.000 A 
ENDROOT
BRANCH   1   9
ATOM      8  O   UNL     1      -0.808   2.224  -0.158  0.00  0.00    +0.000 OA
ATOM      9  C   UNL     1      -1.055   1.286   0.575  0.00  0.00    +0.000 C 
ATOM     10  O   UNL     1      -0.563   1.194   1.822  0.00  0.00    +0.000 OA
ENDBRANCH   1   9
BRANCH   7  11
ATOM     11  C   UNL     1      -0.545  -0.383  -1.882  0.00  0.00    +0.000 C 
BRANCH  11  12
ATOM     12  C   UNL     1       0.562  -1.393  -1.725  0.00  0.00    +0.000 C 
ATOM     13  C   UNL     1       1.728  -1.264  -1.071  0.00  0.00    +0.000 C 
BRANCH  13  14
ATOM     14  C   UNL     1       2.191  -0.094  -0.321  0.00  0.00    +0.000 A 
ATOM     15  C   UNL     1       2.458  -0.224   1.047  0.00  0.00    +0.000 A 
ATOM     16  C   UNL     1       2.930   0.864   1.784  0.00  0.00    +0.000 A 
ATOM     17  C   UNL     1       3.143   2.090   1.158  0.00  0.00    +0.000 A 
ATOM     18  C   UNL     1       2.890   2.226  -0.206  0.00  0.00    +0.000 A 
ATOM     19  C   UNL     1       2.423   1.136  -0.945  0.00  0.00    +0.000 A 
ENDBRANCH  13  14
ENDBRANCH  11  12
ENDBRANCH   7  11
TORSDOF 4
