REMARK  Name = Candidata_015
REMARK  5 active torsions:
REMARK  status: ('A' for Active; 'I' for Inactive)
REMARK    1  A    between atoms: C_2  and  C_4
REMARK    2  A    between atoms: C_5  and  C_6
REMARK    3  A    between atoms: C_8  and  C_9
REMARK    4  A    between atoms: C_10  and  C_11
REMARK    5  A    between atoms: C_11  and  C_12
REMARK                            x       y       z     vdW  Elec       q    Type
REMARK                         _______ _______ _______ _____ _____    ______ ____
ROOT
ATOM      1  C   UNL     1       0.520   1.087   1.201  0.00  0.00    +0.000 C 
ATOM      2  C   UNL     1       1.299   0.186   0.583  0.00  0.00    +0.000 C 
ENDROOT
BRANCH   1   5
ATOM      3  C   UNL     1      -1.258   1.548   2.903  0.00  0.00    +0.000 C 
ATOM      4 BR   UNL     1      -1.306   3.413   2.686  0.00  0.00    +0.000 Br
ATOM      5  C   UNL     1      -0.432   0.723   2.230  0.00  0.00    +0.000 C 
BRANCH   3   7
ATOM      6  C   UNL     1      -3.143   0.148   3.817  0.00  0.00    +0.000 C 
ATOM      7  C   UNL     1      -2.154   1.049   3.932  0.00  0.00    +0.000 C 
BRANCH   6   9
ATOM      8  O   UNL     1      -4.265  -1.583   2.642  0.00  0.00    +0.000 OA
ATOM      9  C   UNL     1      -3.624  -0.547   2.616  0.00  0.00    +0.000 C 
ATOM     10  O   UNL     1      -3.354   0.084   1.468  0.00  0.00    +0.000 OA
ENDBRANCH   6   9
ENDBRANCH   3   7
ENDBRANCH   1   5
BRANCH   2  11
ATOM     11  C   UNL     1       2.287   0.533  -0.497  0.00  0.00    +0.000 C 
BRANCH  11  12
ATOM     12  C   UNL     1       1.978  -0.167  -1.798  0.00  0.00    +0.000 A 
ATOM     13  C   UNL     1       0.988   0.334  -2.655  0.00  0.00    +0.000 A 
ATOM     14  C   UNL     1       0.691  -0.318  -3.853  0.00  0.00    +0.000 A 
ATOM     15  C   UNL     1       1.377  -1.480  -4.204  0.00  0.00    +0.000 A 
ATOM     16  C   UNL     1       2.358  -1.991  -3.356  0.00  0.00    +0.000 A 
ATOM     17  C   UNL     1       2.656  -1.340  -2.158  0.00  0.00    +0.000 A 
ENDBRANCH  11  12
ENDBRANCH   2  11
TORSDOF 5
