REMARK  Name = Candidata_029
REMARK  4 active torsions:
REMARK  status: ('A' for Active; 'I' for Inactive)
REMARK    1  A    between atoms: C_2  and  C_3
REMARK    2  A    between atoms: C_4  and  C_5
REMARK    3  A    between atoms: N_6  and  C_7
REMARK    4  A    between atoms: C_7  and  C_9
REMARK                            x       y       z     vdW  Elec       q    Type
REMARK                         _______ _______ _______ _____ _____    ______ ____
ROOT
ATOM      1  C   UNL     1       0.023  -0.684  -0.874  0.00  0.00    +0.000 C 
ATOM      2  N   UNL     1       1.197  -0.875  -1.382  0.00  0.00    +0.000 NA
ENDROOT
BRANCH   1   4
ATOM      3  C   UNL     1      -1.638   0.229   0.773  0.00  0.00    +0.000 C 
ATOM      4  C   UNL     1      -0.390   0.148   0.286  0.00  0.00    +0.000 C 
BRANCH   3   6
ATOM      5  C   UNL     1      -4.022  -0.285   0.884  0.00  0.00    +0.000 C 
ATOM      6  C   UNL     1      -2.824  -0.457   0.312  0.00  0.00    +0.000 C 
ENDBRANCH   3   6
ENDBRANCH   1   4
BRANCH   2   7
ATOM      7  C   UNL     1       2.280  -0.221  -0.834  0.00  0.00    +0.000 C 
ATOM      8  O   UNL     1       2.332   0.996  -0.677  0.00  0.00    +0.000 OA
BRANCH   7   9
ATOM      9  C   UNL     1       3.526  -1.062  -0.422  0.00  0.00    +0.000 C 
ATOM     10  O   UNL     1       3.479  -2.215  -0.035  0.00  0.00    +0.000 OA
ATOM     11  O   UNL     1       4.686  -0.398  -0.526  0.00  0.00    +0.000 OA
ENDBRANCH   7   9
ENDBRANCH   2   7
TORSDOF 4
