REMARK  Name = Candidata_018
REMARK  6 active torsions:
REMARK  status: ('A' for Active; 'I' for Inactive)
REMARK    1  A    between atoms: C_2  and  C_3
REMARK    2  A    between atoms: C_3  and  N_4
REMARK    3  A    between atoms: C_5  and  C_6
REMARK    4  A    between atoms: C_7  and  N_8
REMARK    5  A    between atoms: C_9  and  C_11
REMARK    6  A    between atoms: C_17  and  C_18
REMARK                            x       y       z     vdW  Elec       q    Type
REMARK                         _______ _______ _______ _____ _____    ______ ____
ROOT
ATOM      1  N   UNL     1      -0.598  -0.751  -0.292  0.00  0.00    +0.000 N 
ATOM      2  C   UNL     1      -1.844  -1.218  -0.663  0.00  0.00    +0.000 C 
ATOM      3  O   UNL     1      -2.016  -2.059  -1.543  0.00  0.00    +0.000 OA
ATOM      4  H   UNL     1      -0.543  -0.088   0.433  0.00  0.00    +0.000 HD
ENDROOT
BRANCH   2   5
ATOM      5  C   UNL     1      -3.039  -0.716   0.077  0.00  0.00    +0.000 A 
ATOM      6  C   UNL     1      -4.073  -1.655   0.264  0.00  0.00    +0.000 A 
ATOM      7  C   UNL     1      -5.269  -1.300   0.894  0.00  0.00    +0.000 A 
ATOM      8  C   UNL     1      -5.452   0.005   1.335  0.00  0.00    +0.000 A 
ATOM      9 BR   UNL     1      -7.068   0.493   2.184  0.00  0.00    +0.000 Br
ATOM     10  C   UNL     1      -4.452   0.957   1.151  0.00  0.00    +0.000 A 
ATOM     11  C   UNL     1      -3.245   0.599   0.521  0.00  0.00    +0.000 A 
BRANCH  11  12
ATOM     12  C   UNL     1      -2.238   1.660   0.375  0.00  0.00    +0.000 C 
ATOM     13  O   UNL     1      -1.080   1.589   0.741  0.00  0.00    +0.000 OA
ATOM     14  O   UNL     1      -2.755   2.749  -0.211  0.00  0.00    +0.000 OA
ENDBRANCH  11  12
ENDBRANCH   2   5
BRANCH   1  16
ATOM     15  C   UNL     1       1.758  -0.672  -0.533  0.00  0.00    +0.000 C 
ATOM     16  C   UNL     1       0.569  -1.169  -0.888  0.00  0.00    +0.000 C 
BRANCH  15  18
ATOM     17  N   UNL     1       4.198  -0.831  -1.042  0.00  0.00    +0.000 NA
ATOM     18  C   UNL     1       2.972  -1.170  -1.222  0.00  0.00    +0.000 C 
BRANCH  17  19
ATOM     19  C   UNL     1       4.512   0.180  -0.043  0.00  0.00    +0.000 C 
BRANCH  19  21
ATOM     20  C   UNL     1       6.607   1.554  -0.277  0.00  0.00    +0.000 C 
ATOM     21  C   UNL     1       5.996   0.383  -0.051  0.00  0.00    +0.000 C 
ENDBRANCH  19  21
ENDBRANCH  17  19
ENDBRANCH  15  18
ENDBRANCH   1  16
TORSDOF 6
