REMARK  Name = Candidata_007
REMARK  3 active torsions:
REMARK  status: ('A' for Active; 'I' for Inactive)
REMARK    1  A    between atoms: C_3  and  N_4
REMARK    2  A    between atoms: C_5  and  C_7
REMARK    3  A    between atoms: C_13  and  C_14
REMARK                            x       y       z     vdW  Elec       q    Type
REMARK                         _______ _______ _______ _____ _____    ______ ____
ROOT
ATOM      1  C   UNL     1       0.113  -0.640   0.050  0.00  0.00    +0.000 A 
ATOM      2  C   UNL     1       0.303  -1.982   0.438  0.00  0.00    +0.000 A 
ATOM      3  C   UNL     1       1.179  -2.319   1.472  0.00  0.00    +0.000 A 
ATOM      4  C   UNL     1       1.889  -1.318   2.125  0.00  0.00    +0.000 A 
ATOM      5 BR   UNL     1       3.078  -1.767   3.523  0.00  0.00    +0.000 Br
ATOM      6  C   UNL     1       1.731   0.014   1.752  0.00  0.00    +0.000 A 
ATOM      7  C   UNL     1       0.845   0.357   0.713  0.00  0.00    +0.000 A 
ENDROOT
BRANCH   1   9
ATOM      8  N   UNL     1      -1.648   0.658  -1.084  0.00  0.00    +0.000 N 
ATOM      9  C   UNL     1      -0.806  -0.435  -1.109  0.00  0.00    +0.000 C 
ATOM     10  O   UNL     1      -0.793  -1.278  -2.001  0.00  0.00    +0.000 OA
ATOM     11  H   UNL     1      -1.569   1.264  -0.311  0.00  0.00    +0.000 HD
BRANCH   8  14
ATOM     12  O   UNL     1      -3.199  -0.289  -4.074  0.00  0.00    +0.000 OA
ATOM     13  C   UNL     1      -2.883   0.290  -3.099  0.00  0.00    +0.000 C 
ATOM     14  C   UNL     1      -2.591   0.984  -2.038  0.00  0.00    +0.000 C 
ENDBRANCH   8  14
ENDBRANCH   1   9
BRANCH   7  15
ATOM     15  C   UNL     1       0.726   1.785   0.386  0.00  0.00    +0.000 C 
ATOM     16  O   UNL     1      -0.319   2.400   0.288  0.00  0.00    +0.000 OA
ATOM     17  O   UNL     1       1.928   2.354   0.214  0.00  0.00    +0.000 OA
ENDBRANCH   7  15
TORSDOF 3
