REMARK  Name = Candidata_032
REMARK  3 active torsions:
REMARK  status: ('A' for Active; 'I' for Inactive)
REMARK    1  A    between atoms: C_2  and  S_3
REMARK    2  A    between atoms: S_3  and  O_4
REMARK    3  A    between atoms: S_3  and  C_5
REMARK                            x       y       z     vdW  Elec       q    Type
REMARK                         _______ _______ _______ _____ _____    ______ ____
ROOT
ATOM      1  C   UNL     1       0.613   0.288  -0.133  0.00  0.00    +0.000 A 
ATOM      2  C   UNL     1       0.547   1.669  -0.330  0.00  0.00    +0.000 A 
ATOM      3  C   UNL     1      -0.702   2.299  -0.466  0.00  0.00    +0.000 A 
ATOM      4 BR   UNL     1      -0.774   4.172  -0.722  0.00  0.00    +0.000 Br
ATOM      5  C   UNL     1      -1.895   1.569  -0.425  0.00  0.00    +0.000 A 
ATOM      6  C   UNL     1      -1.809   0.199  -0.251  0.00  0.00    +0.000 A 
ATOM      7  C   UNL     1      -0.572  -0.426  -0.110  0.00  0.00    +0.000 A 
ATOM      8  C   UNL     1      -0.861  -1.855   0.035  0.00  0.00    +0.000 C 
ATOM      9  O   UNL     1      -0.065  -2.760   0.191  0.00  0.00    +0.000 OA
ATOM     10  C   UNL     1      -2.330  -2.005  -0.029  0.00  0.00    +0.000 C 
ATOM     11  C   UNL     1      -2.869  -0.790  -0.194  0.00  0.00    +0.000 C 
ENDROOT
BRANCH   1  12
ATOM     12  S   UNL     1       2.158  -0.500  -0.007  0.00  0.00    +0.000 S 
ATOM     13  H   UNL     1       2.519  -0.902  -1.255  0.00  0.00    +0.000 HD
BRANCH  12  15
ATOM     14  O   UNL     1       3.836   1.431   0.108  0.00  0.00    +0.000 OA
ATOM     15  C   UNL     1       3.304   0.559   0.782  0.00  0.00    +0.000 C 
ENDBRANCH  12  15
BRANCH  12  16
ATOM     16  O   UNL     1       2.030  -1.656   1.130  0.00  0.00    +0.000 OA
ATOM     17  H   UNL     1       1.768  -1.253   1.973  0.00  0.00    +0.000 HD
ENDBRANCH  12  16
ENDBRANCH   1  12
TORSDOF 3
