REMARK  Name = Candidata_017
REMARK  3 active torsions:
REMARK  status: ('A' for Active; 'I' for Inactive)
REMARK    1  A    between atoms: C_2  and  C_4
REMARK    2  A    between atoms: C_11  and  C_12
REMARK    3  A    between atoms: C_12  and  C_13
REMARK                            x       y       z     vdW  Elec       q    Type
REMARK                         _______ _______ _______ _____ _____    ______ ____
ROOT
ATOM      1  C   UNL     1      -2.098   0.069  -0.334  0.00  0.00    +0.000 C 
ATOM      2  C   UNL     1      -1.171  -0.474   0.475  0.00  0.00    +0.000 C 
ATOM      3  C   UNL     1      -1.063  -1.916   0.642  0.00  0.00    +0.000 C 
ATOM      4 BR   UNL     1      -0.838  -3.004  -0.856  0.00  0.00    +0.000 Br
ATOM      5  C   UNL     1      -1.056  -2.405   1.893  0.00  0.00    +0.000 C 
ATOM      6  C   UNL     1      -1.268  -1.564   3.115  0.00  0.00    +0.000 C 
ATOM      7  P   UNL     1      -0.046  -0.173   2.987  0.00  0.00    +0.000 P 
ATOM      8  C   UNL     1      -0.200   0.315   1.314  0.00  0.00    +0.000 C 
ENDROOT
BRANCH   1  10
ATOM      9  O   UNL     1      -2.264   2.354   0.408  0.00  0.00    +0.000 OA
ATOM     10  C   UNL     1      -2.424   1.492  -0.432  0.00  0.00    +0.000 C 
ATOM     11  O   UNL     1      -2.995   1.750  -1.619  0.00  0.00    +0.000 OA
ENDBRANCH   1  10
BRANCH   8  12
ATOM     12  C   UNL     1       0.687   1.372   0.648  0.00  0.00    +0.000 C 
BRANCH  12  13
ATOM     13  C   UNL     1       1.387   0.851  -0.586  0.00  0.00    +0.000 A 
ATOM     14  C   UNL     1       1.073   1.359  -1.854  0.00  0.00    +0.000 A 
ATOM     15  C   UNL     1       1.705   0.856  -2.992  0.00  0.00    +0.000 A 
ATOM     16  C   UNL     1       2.656  -0.156  -2.875  0.00  0.00    +0.000 A 
ATOM     17  C   UNL     1       2.981  -0.663  -1.618  0.00  0.00    +0.000 A 
ATOM     18  C   UNL     1       2.352  -0.161  -0.478  0.00  0.00    +0.000 A 
ENDBRANCH  12  13
ENDBRANCH   8  12
TORSDOF 3
