REMARK  Name = Candidata_038
REMARK  0 active torsions:
REMARK  status: ('A' for Active; 'I' for Inactive)
REMARK                            x       y       z     vdW  Elec       q    Type
REMARK                         _______ _______ _______ _____ _____    ______ ____
ROOT
ATOM      1  C   UNL     1      -0.280   1.144   0.175  0.00  0.00    +0.000 C 
ATOM      2  C   UNL     1      -1.222   0.251  -0.148  0.00  0.00    +0.000 C 
ATOM      3  N   UNL     1      -0.918  -1.055  -0.468  0.00  0.00    +0.000 N 
ATOM      4  O   UNL     1       0.326  -1.611  -0.099  0.00  0.00    +0.000 OA
ATOM      5  C   UNL     1       1.306  -0.644   0.054  0.00  0.00    +0.000 C 
ATOM      6  C   UNL     1       1.080   0.671   0.195  0.00  0.00    +0.000 C 
ATOM      7  H   UNL     1      -1.573  -1.604  -0.958  0.00  0.00    +0.000 HD
ENDROOT
TORSDOF 0
