REMARK  Name = Candidata_001
REMARK  3 active torsions:
REMARK  status: ('A' for Active; 'I' for Inactive)
REMARK    1  A    between atoms: C_2  and  C_4
REMARK    2  A    between atoms: C_10  and  C_11
REMARK    3  A    between atoms: C_11  and  C_12
REMARK                            x       y       z     vdW  Elec       q    Type
REMARK                         _______ _______ _______ _____ _____    ______ ____
ROOT
ATOM      1  C   UNL     1      -1.769   0.148  -0.260  0.00  0.00    +0.000 A 
ATOM      2  C   UNL     1      -2.759   1.127  -0.445  0.00  0.00    +0.000 A 
ATOM      3  C   UNL     1      -3.054   2.022   0.578  0.00  0.00    +0.000 A 
ATOM      4 BR   UNL     1      -4.397   3.328   0.326  0.00  0.00    +0.000 Br
ATOM      5  C   UNL     1      -2.369   1.961   1.787  0.00  0.00    +0.000 A 
ATOM      6  C   UNL     1      -1.370   1.002   1.969  0.00  0.00    +0.000 A 
ATOM      7  C   UNL     1      -1.044   0.086   0.949  0.00  0.00    +0.000 A 
ENDROOT
BRANCH   1   9
ATOM      8  O   UNL     1      -1.591  -0.440  -2.582  0.00  0.00    +0.000 OA
ATOM      9  C   UNL     1      -1.549  -0.759  -1.409  0.00  0.00    +0.000 C 
ATOM     10  O   UNL     1      -1.416  -2.042  -1.035  0.00  0.00    +0.000 OA
ENDBRANCH   1   9
BRANCH   7  11
ATOM     11  C   UNL     1       0.094  -0.885   1.196  0.00  0.00    +0.000 C 
BRANCH  11  12
ATOM     12  C   UNL     1       1.311  -0.674   0.321  0.00  0.00    +0.000 A 
ATOM     13  C   UNL     1       1.860  -1.749  -0.393  0.00  0.00    +0.000 A 
ATOM     14  C   UNL     1       2.993  -1.570  -1.188  0.00  0.00    +0.000 A 
ATOM     15  C   UNL     1       3.595  -0.317  -1.273  0.00  0.00    +0.000 A 
ATOM     16  C   UNL     1       3.069   0.756  -0.558  0.00  0.00    +0.000 A 
ATOM     17  C   UNL     1       1.937   0.579   0.239  0.00  0.00    +0.000 A 
ENDBRANCH  11  12
ENDBRANCH   7  11
TORSDOF 3
