REMARK  Name = Candidata_028
REMARK  2 active torsions:
REMARK  status: ('A' for Active; 'I' for Inactive)
REMARK    1  A    between atoms: C_8  and  C_9
REMARK    2  A    between atoms: N_11  and  C_12
REMARK                            x       y       z     vdW  Elec       q    Type
REMARK                         _______ _______ _______ _____ _____    ______ ____
ROOT
ATOM      1  C   UNL     1       0.111   0.515  -1.058  0.00  0.00    +0.000 C 
ATOM      2  O   UNL     1      -0.143   1.315  -1.948  0.00  0.00    +0.000 OA
ATOM      3  N   UNL     1      -0.725   0.078  -0.048  0.00  0.00    +0.000 N 
ATOM      4  H   UNL     1      -0.333  -0.549   0.602  0.00  0.00    +0.000 HD
ENDROOT
BRANCH   1  12
ATOM      5  O   UNL     1       2.322   2.429   0.493  0.00  0.00    +0.000 OA
ATOM      6  C   UNL     1       2.813   1.377   0.114  0.00  0.00    +0.000 C 
ATOM      7  C   UNL     1       3.804   0.623   0.919  0.00  0.00    +0.000 C 
ATOM      8  C   UNL     1       3.998  -0.633   0.649  0.00  0.00    +0.000 C 
ATOM      9  C   UNL     1       3.916  -1.833   0.154  0.00  0.00    +0.000 C 
ATOM     10  C   UNL     1       2.933  -2.210  -0.929  0.00  0.00    +0.000 C 
ATOM     11  C   UNL     1       1.633  -1.433  -0.935  0.00  0.00    +0.000 C 
ATOM     12  C   UNL     1       1.484  -0.090  -0.976  0.00  0.00    +0.000 C 
ATOM     13  O   UNL     1       2.582   0.777  -1.094  0.00  0.00    +0.000 OA
ENDBRANCH   1  12
BRANCH   3  14
ATOM     14  C   UNL     1      -2.075   0.429   0.157  0.00  0.00    +0.000 A 
ATOM     15  C   UNL     1      -2.713  -0.113   1.281  0.00  0.00    +0.000 A 
ATOM     16  C   UNL     1      -4.053   0.181   1.553  0.00  0.00    +0.000 A 
ATOM     17  C   UNL     1      -4.767   1.020   0.702  0.00  0.00    +0.000 A 
ATOM     18  C   UNL     1      -4.141   1.563  -0.417  0.00  0.00    +0.000 A 
ATOM     19  C   UNL     1      -2.801   1.269  -0.689  0.00  0.00    +0.000 A 
ENDBRANCH   3  14
TORSDOF 2
