REMARK  Name = Candidata_005
REMARK  3 active torsions:
REMARK  status: ('A' for Active; 'I' for Inactive)
REMARK    1  A    between atoms: C_2  and  C_4
REMARK    2  A    between atoms: C_10  and  C_11
REMARK    3  A    between atoms: C_11  and  C_12
REMARK                            x       y       z     vdW  Elec       q    Type
REMARK                         _______ _______ _______ _____ _____    ______ ____
ROOT
ATOM      1  C   UNL     1      -2.190   0.667  -0.008  0.00  0.00    +0.000 A 
ATOM      2  C   UNL     1      -3.228  -0.238   0.060  0.00  0.00    +0.000 A 
ATOM      3  C   UNL     1      -2.988  -1.586   0.164  0.00  0.00    +0.000 A 
ATOM      4  P   UNL     1      -4.369  -2.717   0.249  0.00  0.00    +0.000 P 
ATOM      5  C   UNL     1      -1.683  -2.033   0.199  0.00  0.00    +0.000 A 
ATOM      6  C   UNL     1      -0.656  -1.109   0.130  0.00  0.00    +0.000 A 
ATOM      7  C   UNL     1      -0.898   0.250   0.026  0.00  0.00    +0.000 A 
ENDROOT
BRANCH   1   9
ATOM      8  O   UNL     1      -1.588   2.953  -0.182  0.00  0.00    +0.000 OA
ATOM      9  C   UNL     1      -2.495   2.083  -0.116  0.00  0.00    +0.000 C 
ATOM     10  O   UNL     1      -3.805   2.537  -0.152  0.00  0.00    +0.000 OA
ENDBRANCH   1   9
BRANCH   7  11
ATOM     11  C   UNL     1       0.264   1.157  -0.042  0.00  0.00    +0.000 C 
BRANCH  11  12
ATOM     12  C   UNL     1       1.559   0.403   0.017  0.00  0.00    +0.000 A 
ATOM     13  C   UNL     1       2.149  -0.033  -1.175  0.00  0.00    +0.000 A 
ATOM     14  C   UNL     1       3.332  -0.728  -1.187  0.00  0.00    +0.000 A 
ATOM     15  C   UNL     1       3.966  -1.008   0.014  0.00  0.00    +0.000 A 
ATOM     16  C   UNL     1       3.388  -0.579   1.208  0.00  0.00    +0.000 A 
ATOM     17  C   UNL     1       2.193   0.122   1.210  0.00  0.00    +0.000 A 
ENDBRANCH  11  12
ENDBRANCH   7  11
TORSDOF 3
