REMARK  Name = Candidata_006
REMARK  2 active torsions:
REMARK  status: ('A' for Active; 'I' for Inactive)
REMARK    1  A    between atoms: C_2  and  C_4
REMARK    2  A    between atoms: C_10  and  C_11
REMARK                            x       y       z     vdW  Elec       q    Type
REMARK                         _______ _______ _______ _____ _____    ______ ____
ROOT
ATOM      1  C   UNL     1      -1.713   0.616  -0.162  0.00  0.00    +0.000 A 
ATOM      2  C   UNL     1      -2.931   0.023   0.217  0.00  0.00    +0.000 A 
ATOM      3  C   UNL     1      -2.965  -1.308   0.618  0.00  0.00    +0.000 A 
ATOM      4 BR   UNL     1      -4.606  -2.094   1.132  0.00  0.00    +0.000 Br
ATOM      5  C   UNL     1      -1.797  -2.060   0.660  0.00  0.00    +0.000 A 
ATOM      6  C   UNL     1      -0.585  -1.479   0.281  0.00  0.00    +0.000 A 
ATOM      7  C   UNL     1      -0.518  -0.140  -0.159  0.00  0.00    +0.000 A 
ENDROOT
BRANCH   7   8
ATOM      8  C   UNL     1       0.830   0.453  -0.584  0.00  0.00    +0.000 C 
ATOM      9  C   UNL     1       1.639  -0.510  -1.438  0.00  0.00    +0.000 C 
ATOM     10  C   UNL     1       2.797  -1.049  -1.029  0.00  0.00    +0.000 C 
ATOM     11  C   UNL     1       3.336  -0.766   0.277  0.00  0.00    +0.000 C 
ATOM     12  C   UNL     1       2.803   0.179   1.062  0.00  0.00    +0.000 C 
ATOM     13  C   UNL     1       1.606   0.996   0.649  0.00  0.00    +0.000 C 
ENDBRANCH   7   8
BRANCH   1  15
ATOM     14  O   UNL     1      -0.850   2.873  -0.261  0.00  0.00    +0.000 OA
ATOM     15  C   UNL     1      -1.724   2.062  -0.500  0.00  0.00    +0.000 C 
ATOM     16  O   UNL     1      -2.851   2.415  -1.144  0.00  0.00    +0.000 OA
ENDBRANCH   1  15
TORSDOF 2
