REMARK  Name = Candidata_021
REMARK  5 active torsions:
REMARK  status: ('A' for Active; 'I' for Inactive)
REMARK    1  A    between atoms: C_2  and  C_3
REMARK    2  A    between atoms: C_8  and  N_9
REMARK    3  A    between atoms: C_10  and  C_12
REMARK    4  A    between atoms: C_18  and  C_19
REMARK    5  A    between atoms: C_19  and  O_20
REMARK                            x       y       z     vdW  Elec       q    Type
REMARK                         _______ _______ _______ _____ _____    ______ ____
ROOT
ATOM      1  N   UNL     1       0.566   0.223  -0.045  0.00  0.00    +0.000 N 
ATOM      2  C   UNL     1      -0.168  -0.760   0.587  0.00  0.00    +0.000 C 
ATOM      3  O   UNL     1       0.232  -1.865   0.929  0.00  0.00    +0.000 OA
ATOM      4  H   UNL     1       0.083   1.033  -0.330  0.00  0.00    +0.000 HD
ENDROOT
BRANCH   2   5
ATOM      5  C   UNL     1      -1.588  -0.415   0.835  0.00  0.00    +0.000 A 
ATOM      6  C   UNL     1      -2.012  -0.453   2.172  0.00  0.00    +0.000 A 
ATOM      7  C   UNL     1      -3.324  -0.117   2.502  0.00  0.00    +0.000 A 
ATOM      8  C   UNL     1      -4.211   0.251   1.494  0.00  0.00    +0.000 A 
ATOM      9 BR   UNL     1      -5.989   0.717   1.936  0.00  0.00    +0.000 Br
ATOM     10  C   UNL     1      -3.803   0.272   0.158  0.00  0.00    +0.000 A 
ATOM     11  C   UNL     1      -2.487  -0.077  -0.195  0.00  0.00    +0.000 A 
BRANCH  11  12
ATOM     12  C   UNL     1      -2.094  -0.094  -1.644  0.00  0.00    +0.000 C 
BRANCH  12  13
ATOM     13  O   UNL     1      -1.287   1.048  -1.909  0.00  0.00    +0.000 OA
ATOM     14  H   UNL     1      -1.789   1.853  -1.707  0.00  0.00    +0.000 HD
ENDBRANCH  12  13
ENDBRANCH  11  12
ENDBRANCH   2   5
BRANCH   1  20
ATOM     15  C   UNL     1       2.923  -0.422   0.516  0.00  0.00    +0.000 A 
ATOM     16  C   UNL     1       4.266  -0.447   0.101  0.00  0.00    +0.000 A 
ATOM     17  C   UNL     1       4.653   0.131  -1.108  0.00  0.00    +0.000 A 
ATOM     18  C   UNL     1       3.704   0.762  -1.904  0.00  0.00    +0.000 A 
ATOM     19  C   UNL     1       2.366   0.788  -1.506  0.00  0.00    +0.000 A 
ATOM     20  C   UNL     1       1.952   0.165  -0.317  0.00  0.00    +0.000 A 
BRANCH  15  22
ATOM     21  O   UNL     1       2.502  -1.192   2.976  0.00  0.00    +0.000 OA
ATOM     22  C   UNL     1       2.654  -0.870   1.853  0.00  0.00    +0.000 C 
ENDBRANCH  15  22
ENDBRANCH   1  20
TORSDOF 5
