REMARK  Name = Candidata_026
REMARK  5 active torsions:
REMARK  status: ('A' for Active; 'I' for Inactive)
REMARK    1  A    between atoms: C_2  and  C_4
REMARK    2  A    between atoms: C_5  and  C_6
REMARK    3  A    between atoms: C_8  and  O_9
REMARK    4  A    between atoms: C_8  and  C_10
REMARK    5  A    between atoms: C_16  and  C_17
REMARK                            x       y       z     vdW  Elec       q    Type
REMARK                         _______ _______ _______ _____ _____    ______ ____
ROOT
ATOM      1  C   UNL     1      -0.190  -1.352  -0.325  0.00  0.00    +0.000 A 
ATOM      2  C   UNL     1      -0.339  -2.148  -1.471  0.00  0.00    +0.000 A 
ATOM      3  C   UNL     1       0.669  -3.040  -1.839  0.00  0.00    +0.000 A 
ATOM      4 BR   UNL     1       0.453  -4.110  -3.383  0.00  0.00    +0.000 Br
ATOM      5  C   UNL     1       1.834  -3.155  -1.079  0.00  0.00    +0.000 A 
ATOM      6  C   UNL     1       1.998  -2.364   0.058  0.00  0.00    +0.000 A 
ATOM      7  C   UNL     1       0.993  -1.457   0.422  0.00  0.00    +0.000 A 
ENDROOT
BRANCH   7   8
ATOM      8  C   UNL     1       1.199  -0.645   1.639  0.00  0.00    +0.000 C 
ATOM      9  O   UNL     1       0.764  -1.112   2.693  0.00  0.00    +0.000 OA
ATOM     10  N   UNL     1       1.901   0.572   1.526  0.00  0.00    +0.000 N 
ATOM     11  C   UNL     1       2.167   1.308   2.678  0.00  0.00    +0.000 C 
ATOM     12  C   UNL     1       2.830   2.473   2.693  0.00  0.00    +0.000 C 
ATOM     13  C   UNL     1       3.352   3.103   1.444  0.00  0.00    +0.000 C 
ATOM     14  C   UNL     1       3.023   2.279   0.242  0.00  0.00    +0.000 C 
ATOM     15  C   UNL     1       2.352   1.121   0.330  0.00  0.00    +0.000 C 
ENDBRANCH   7   8
BRANCH   1  18
ATOM     16  C   UNL     1      -2.360  -0.798   0.755  0.00  0.00    +0.000 C 
ATOM     17 BR   UNL     1      -2.632  -2.546   1.408  0.00  0.00    +0.000 Br
ATOM     18  C   UNL     1      -1.270  -0.426   0.046  0.00  0.00    +0.000 C 
BRANCH  16  20
ATOM     19  C   UNL     1      -4.379   0.612   0.299  0.00  0.00    +0.000 C 
ATOM     20  C   UNL     1      -3.432   0.114   1.110  0.00  0.00    +0.000 C 
BRANCH  19  22
ATOM     21  O   UNL     1      -3.866  -0.471  -1.807  0.00  0.00    +0.000 OA
ATOM     22  C   UNL     1      -4.519   0.299  -1.133  0.00  0.00    +0.000 C 
ATOM     23  O   UNL     1      -5.522   1.025  -1.653  0.00  0.00    +0.000 OA
ENDBRANCH  19  22
ENDBRANCH  16  20
BRANCH  18  24
ATOM     24  O   UNL     1      -1.026   0.859  -0.402  0.00  0.00    +0.000 OA
ATOM     25  H   UNL     1      -1.644   1.541  -0.227  0.00  0.00    +0.000 HD
ENDBRANCH  18  24
ENDBRANCH   1  18
TORSDOF 5
