REMARK  Name = Candidata_009
REMARK  4 active torsions:
REMARK  status: ('A' for Active; 'I' for Inactive)
REMARK    1  A    between atoms: C_2  and  C_4
REMARK    2  A    between atoms: C_4  and  C_5
REMARK    3  A    between atoms: C_6  and  C_7
REMARK    4  A    between atoms: C_7  and  C_8
REMARK                            x       y       z     vdW  Elec       q    Type
REMARK                         _______ _______ _______ _____ _____    ______ ____
ROOT
ATOM      1  C   UNL     1       0.088  -0.696   1.236  0.00  0.00    +0.000 C 
ENDROOT
BRANCH   1   2
ATOM      2  C   UNL     1      -1.181  -0.013   0.783  0.00  0.00    +0.000 A 
ATOM      3  C   UNL     1      -2.434  -0.489   1.194  0.00  0.00    +0.000 A 
ATOM      4  C   UNL     1      -3.605   0.139   0.764  0.00  0.00    +0.000 A 
ATOM      5  C   UNL     1      -3.535   1.243  -0.083  0.00  0.00    +0.000 A 
ATOM      6  C   UNL     1      -2.295   1.720  -0.504  0.00  0.00    +0.000 A 
ATOM      7  C   UNL     1      -1.123   1.094  -0.075  0.00  0.00    +0.000 A 
ENDBRANCH   1   2
BRANCH   1   9
ATOM      8  C   UNL     1       1.800  -1.524  -0.482  0.00  0.00    +0.000 C 
ATOM      9  C   UNL     1       0.639  -1.625   0.190  0.00  0.00    +0.000 C 
BRANCH   8  10
ATOM     10  C   UNL     1       2.834  -0.437  -0.379  0.00  0.00    +0.000 C 
BRANCH  10  12
ATOM     11  O   UNL     1       2.838  -0.245  -2.836  0.00  0.00    +0.000 OA
ATOM     12  C   UNL     1       3.120   0.188  -1.731  0.00  0.00    +0.000 C 
ATOM     13  O   UNL     1       3.813   1.342  -1.615  0.00  0.00    +0.000 OA
ENDBRANCH  10  12
ENDBRANCH   8  10
ENDBRANCH   1   9
TORSDOF 4
