REMARK  Name = Candidata_033
REMARK  4 active torsions:
REMARK  status: ('A' for Active; 'I' for Inactive)
REMARK    1  A    between atoms: C_2  and  B_3
REMARK    2  A    between atoms: C_5  and  C_6
REMARK    3  A    between atoms: C_7  and  C_9
REMARK    4  A    between atoms: C_10  and  C_11
REMARK                            x       y       z     vdW  Elec       q    Type
REMARK                         _______ _______ _______ _____ _____    ______ ____
ROOT
ATOM      1  C   UNL     1       0.742  -0.098  -0.622  0.00  0.00    +0.000 C 
ATOM      2  C   UNL     1      -0.592  -0.046  -0.396  0.00  0.00    +0.000 C 
ATOM      3 BR   UNL     1      -1.271   1.702  -0.106  0.00  0.00    +0.000 Br
ENDROOT
BRANCH   1   6
ATOM      4  B   UNL     1       3.485   1.381   1.212  0.00  0.00    +0.000 B 
ATOM      5  C   UNL     1       2.438   1.264   0.265  0.00  0.00    +0.000 C 
ATOM      6  C   UNL     1       1.490   1.144  -0.619  0.00  0.00    +0.000 C 
BRANCH   4   8
ATOM      7  O   UNL     1       5.672   1.326   0.109  0.00  0.00    +0.000 OA
ATOM      8  C   UNL     1       4.808   0.686   0.728  0.00  0.00    +0.000 C 
ENDBRANCH   4   8
ENDBRANCH   1   6
BRANCH   2   9
ATOM      9  C   UNL     1      -1.315  -1.272  -0.401  0.00  0.00    +0.000 C 
ATOM     10  C   UNL     1      -2.569  -1.558  -0.222  0.00  0.00    +0.000 C 
BRANCH  10  11
ATOM     11  C   UNL     1      -3.712  -0.739   0.050  0.00  0.00    +0.000 C 
ATOM     12  O   UNL     1      -4.857  -1.313   0.181  0.00  0.00    +0.000 OA
ATOM     13  O   UNL     1      -3.757   0.629   0.196  0.00  0.00    +0.000 OA
ENDBRANCH  10  11
ENDBRANCH   2   9
TORSDOF 4
