REMARK  Name = Candidata_008
REMARK  1 active torsions:
REMARK  status: ('A' for Active; 'I' for Inactive)
REMARK    1  A    between atoms: C_2  and  C_4
REMARK                            x       y       z     vdW  Elec       q    Type
REMARK                         _______ _______ _______ _____ _____    ______ ____
ROOT
ATOM      1  C   UNL     1       0.849  -0.161  -0.164  0.00  0.00    +0.000 C 
ATOM      2  C   UNL     1      -0.024  -0.217   0.783  0.00  0.00    +0.000 C 
ATOM      3  C   UNL     1      -1.348  -0.043   1.307  0.00  0.00    +0.000 C 
ATOM      4  C   UNL     1      -2.196   0.425   0.390  0.00  0.00    +0.000 C 
ATOM      5  C   UNL     1      -1.516   0.615  -0.859  0.00  0.00    +0.000 C 
ATOM      6 BR   UNL     1      -2.422   1.256  -2.335  0.00  0.00    +0.000 Br
ATOM      7  C   UNL     1      -0.217   0.296  -0.855  0.00  0.00    +0.000 C 
ENDROOT
BRANCH   1   9
ATOM      8  O   UNL     1       2.773  -0.238  -1.543  0.00  0.00    +0.000 OA
ATOM      9  C   UNL     1       2.229  -0.411  -0.469  0.00  0.00    +0.000 C 
ATOM     10  O   UNL     1       2.901  -0.878   0.597  0.00  0.00    +0.000 OA
ENDBRANCH   1   9
TORSDOF 1
