REMARK  Name = Candidata_020
REMARK  2 active torsions:
REMARK  status: ('A' for Active; 'I' for Inactive)
REMARK    1  A    between atoms: C_8  and  C_9
REMARK    2  A    between atoms: N_11  and  C_12
REMARK                            x       y       z     vdW  Elec       q    Type
REMARK                         _______ _______ _______ _____ _____    ______ ____
ROOT
ATOM      1  C   UNL     1       0.095  -0.549   0.843  0.00  0.00    +0.000 C 
ATOM      2  O   UNL     1      -0.163  -1.014   1.946  0.00  0.00    +0.000 OA
ATOM      3  N   UNL     1      -0.796  -0.023  -0.074  0.00  0.00    +0.000 N 
ATOM      4  H   UNL     1      -0.405   0.357  -0.894  0.00  0.00    +0.000 HD
ENDROOT
BRANCH   1  12
ATOM      5  O   UNL     1       4.434   0.791   2.097  0.00  0.00    +0.000 OA
ATOM      6  C   UNL     1       3.651   0.593   1.171  0.00  0.00    +0.000 C 
ATOM      7  C   UNL     1       3.950   1.054  -0.235  0.00  0.00    +0.000 C 
ATOM      8  C   UNL     1       4.156  -0.133  -1.122  0.00  0.00    +0.000 C 
ATOM      9 BR   UNL     1       5.849  -0.291  -1.899  0.00  0.00    +0.000 Br
ATOM     10  C   UNL     1       3.193  -1.034  -1.362  0.00  0.00    +0.000 C 
ATOM     11  C   UNL     1       1.859  -0.945  -0.816  0.00  0.00    +0.000 C 
ATOM     12  C   UNL     1       1.527  -0.459   0.396  0.00  0.00    +0.000 C 
ATOM     13  O   UNL     1       2.444  -0.003   1.379  0.00  0.00    +0.000 OA
ENDBRANCH   1  12
BRANCH   3  14
ATOM     14  C   UNL     1      -2.202   0.029   0.033  0.00  0.00    +0.000 A 
ATOM     15  C   UNL     1      -2.899   0.658  -1.008  0.00  0.00    +0.000 A 
ATOM     16  C   UNL     1      -4.294   0.749  -0.981  0.00  0.00    +0.000 A 
ATOM     17  C   UNL     1      -5.005   0.209   0.087  0.00  0.00    +0.000 A 
ATOM     18  C   UNL     1      -4.321  -0.420   1.125  0.00  0.00    +0.000 A 
ATOM     19  C   UNL     1      -2.925  -0.510   1.098  0.00  0.00    +0.000 A 
ENDBRANCH   3  14
TORSDOF 2
