REMARK  Name = Candidata_024
REMARK  3 active torsions:
REMARK  status: ('A' for Active; 'I' for Inactive)
REMARK    1  A    between atoms: C_1  and  C_2
REMARK    2  A    between atoms: C_8  and  C_9
REMARK    3  A    between atoms: N_11  and  C_12
REMARK                            x       y       z     vdW  Elec       q    Type
REMARK                         _______ _______ _______ _____ _____    ______ ____
ROOT
ATOM      1  C   UNL     1       0.376  -0.504   0.918  0.00  0.00    +0.000 C 
ATOM      2  O   UNL     1       0.693  -0.875   2.041  0.00  0.00    +0.000 OA
ATOM      3  N   UNL     1       1.214  -0.078  -0.096  0.00  0.00    +0.000 N 
ATOM      4  H   UNL     1       0.783   0.142  -0.954  0.00  0.00    +0.000 HD
ENDROOT
BRANCH   1  12
ATOM      5  C   UNL     1      -3.886   1.300   0.840  0.00  0.00    +0.000 C 
ATOM      6  C   UNL     1      -3.043   0.849  -0.352  0.00  0.00    +0.000 C 
ATOM      7  C   UNL     1      -3.676  -0.297  -1.078  0.00  0.00    +0.000 C 
ATOM      8  C   UNL     1      -3.594  -1.603  -0.797  0.00  0.00    +0.000 C 
ATOM      9  C   UNL     1      -2.905  -2.253   0.326  0.00  0.00    +0.000 C 
ATOM     10  O   UNL     1      -3.347  -3.318   0.747  0.00  0.00    +0.000 OA
ATOM     11  O   UNL     1      -1.763  -1.717   0.813  0.00  0.00    +0.000 OA
ATOM     12  C   UNL     1      -1.070  -0.525   0.506  0.00  0.00    +0.000 C 
ATOM     13  C   UNL     1      -1.619   0.608   0.037  0.00  0.00    +0.000 C 
ENDBRANCH   1  12
BRANCH   3  14
ATOM     14  C   UNL     1       2.614   0.076  -0.043  0.00  0.00    +0.000 A 
ATOM     15  C   UNL     1       3.259   0.480  -1.220  0.00  0.00    +0.000 A 
ATOM     16  C   UNL     1       4.644   0.661  -1.249  0.00  0.00    +0.000 A 
ATOM     17  C   UNL     1       5.399   0.441  -0.100  0.00  0.00    +0.000 A 
ATOM     18  C   UNL     1       4.767   0.041   1.075  0.00  0.00    +0.000 A 
ATOM     19  C   UNL     1       3.380  -0.140   1.104  0.00  0.00    +0.000 A 
ENDBRANCH   3  14
TORSDOF 2
